12
	Energy:      -1.3355781
C         -5.22215        3.11246        0.00000
C         -4.01759        2.19555       -0.00000
C         -2.75004        3.02388        0.00000
C         -1.55112        2.09989       -0.00000
C         -0.27474        2.91416       -0.00000
C          0.90925        1.97091       -0.00000
C          2.20091        2.76006       -0.00000
C          3.36538        1.79235       -0.00000
C          4.67196        2.55607        0.00000
C          5.82090        1.56962       -0.00000
C          7.13628        2.31831        0.00000
C          8.27907        1.32495        0.00000
E	   0.00000	  0.00000	 4.50000
