77
	Energy:      15.8325963
N         -0.00119        0.00153        0.00235
C          5.10551        5.71094       -0.97116
H          5.84280        5.19938       -0.35377
H          5.63900        6.31403       -1.73433
H          4.52131        6.38922       -0.34648
C          4.18730        4.68421       -1.65561
H          3.48286        5.19364       -2.30608
H          4.78938        4.02849       -2.28846
C          3.43090        3.83648       -0.61733
H          4.13951        3.30965        0.02208
H          2.82972        4.49624        0.03290
C          2.50811        2.79710       -1.29585
H          1.77963        3.31108       -1.92451
H          3.10019        2.14487       -1.92668
C          1.75392        1.96009       -0.23809
H          2.48642        1.46689        0.40328
H          1.18231        2.63492        0.38217
C          0.82433        0.92065       -0.90344
H          0.12137        1.45041       -1.53625
H          1.41626        0.26395       -1.55091
C         -5.70941        5.11008        0.97387
H         -5.21366        5.84200        0.34387
H         -6.39834        4.53076        0.35499
H         -6.29143        5.63235        1.71128
C         -4.68273        4.18961        1.66032
H         -5.19241        3.45861        2.28587
H         -4.03115        4.78442        2.30346
C         -3.83312        3.42913        0.61817
H         -3.31512        4.15869       -0.02896
H         -4.49890        2.82985       -0.02454
C         -2.80128        2.50398        1.29311
H         -3.31638        1.79128        1.93672
H         -2.13463        3.08596        1.92199
C         -1.96428        1.75311        0.23508
H         -1.46562        2.49038       -0.39103
H         -2.63089        1.18637       -0.41252
C         -0.91923        0.82506        0.89896
H         -1.44886        0.11129        1.54805
H         -0.27331        1.43151        1.55905
C          5.70842       -5.10904        0.97457
H          6.38903       -4.51976        0.35907
H          6.31020       -5.65063        1.71491
H          5.20894       -5.85224        0.35527
C          4.68322       -4.19075        1.65535
H          5.20924       -3.47335        2.30720
H          4.03125       -4.77696        2.29285
C          3.83501       -3.42696        0.61135
H          3.31137       -4.15510       -0.02685
H          4.49170       -2.82973       -0.01621
C          2.80087       -2.50229        1.29565
H          3.31153       -1.79516        1.92634
H          2.13248       -3.09376        1.93694
C          1.96161       -1.75363        0.23948
H          1.46578       -2.48280       -0.41446
H          2.63344       -1.17642       -0.39713
C          0.92181       -0.82408        0.90526
H          1.45388       -0.11191        1.55687
H          0.26796       -1.43592        1.54843
C         -5.10757       -5.70894       -0.97192
H         -5.63704       -6.31119       -1.73068
H         -4.53609       -6.39006       -0.33621
H         -5.84725       -5.19640       -0.35773
C         -4.18932       -4.68036       -1.65495
H         -4.78253       -4.02122       -2.30985
H         -3.47652       -5.21183       -2.29877
C         -3.42922       -3.83451       -0.61515
H         -2.82944       -4.48245        0.03602
H         -4.15869       -3.32802        0.02112
C         -2.50637       -2.80264       -1.29227
H         -3.09981       -2.13123       -1.92475
H         -1.77339       -3.30986       -1.94590
C         -1.75217       -1.96565       -0.24042
H         -1.17600       -2.64007        0.40142
H         -2.48599       -1.45320        0.40571
C         -0.82262       -0.91870       -0.90436
H         -1.42917       -0.28231       -1.55227
H         -0.12119       -1.44290       -1.54139
